LAMMPS data file

          23  atoms
          22  bonds
          23   atom types
           1   bond types

-250.000000 250.000000 xlo xhi
-250.000000 250.000000 ylo yhi
-250.000000 250.000000 zlo zhi

 Masses

    1	71.08
    2	103.10
    3	115.10
    4	129.10
    5	147.20
    6	57.05
    7	137.10
    8	113.20
    9	128.20
    10	113.20
    11	131.20
    12	114.10
    13	97.12
    14	128.10
    15	156.20
    16	87.08
    17	101.10
    18	99.07
    19	186.20
    20	163.20
    21  165.03
    22  179.05
    23  241.15

 Atoms

	   1	1	1	 0.0	0.0	0.0	3.810
	   2	1	2	 0.0	0.0	0.0	7.620
	   3	1	3	-1.0	0.0	0.0	11.43
	   4	1	4	-1.0	0.0	0.0	15.24
	   5	1	5	 0.0	0.0	0.0	19.05
	   6	1	6	 0.0	0.0	0.0	22.86
	   7	1	7	 0.5	0.0	0.0	26.67
	   8	1	8	 0.0	0.0	0.0	30.48
	   9	1	9	 1.0	0.0	0.0	34.29
	  10	1	10	 0.0	0.0	0.0	38.10
	  11	1	11	 0.0	0.0	0.0	41.91
	  12	1	12	 0.0	0.0	0.0	45.72
	  13	1	13	 0.0	0.0	0.0	49.53
	  14	1	14	 0.0	0.0	0.0	53.34
	  15	1	15	 1.0	0.0	0.0	57.15
	  16	1	16	 0.0	0.0	0.0	60.96
	  17	1	17	 0.0	0.0	0.0	64.77
	  18	1	18	 0.0	0.0	0.0	68.58
	  19	1	19	 0.0	0.0	0.0	72.39
	  20	1	20	 0.0	0.0	0.0	76.20
      21	1	21	-2.0	0.0	0.0	80.01
      22	1	22	-2.0	0.0	0.0	83.82
      23	1	23	-2.0	0.0	0.0	87.63

Bonds

        1       1       1       2
        2       1       2       3
        3       1       3       4
        4       1       4       5
        5       1       5       6
        6       1       6       7
        7       1       7       8
        8       1       8       9
        9       1       9       10
        10      1       10      11
        11      1       11      12
        12      1       12      13
        13      1       13      14
        14      1       14      15
        15      1       15      16
        16      1       16      17
        17      1       17      18
        18      1       18      19
        19      1       19      20
        20      1       20      21
        21      1       21      22
        22      1       22      23