LAMMPS data file

         200  atoms
         199  bonds
          23   atom types
           1   bond types

-2500.000000 2500.000000 xlo xhi
-2500.000000 2500.000000 ylo yhi
-2500.000000 2500.000000 zlo zhi

 Masses

    1	71.08
    2	103.10
    3	115.10
    4	129.10
    5	147.20
    6	57.05
    7	137.10
    8	113.20
    9	128.20
    10	113.20
    11	131.20
    12	114.10
    13	97.12
    14	128.10
    15	156.20
    16	87.08
    17	101.10
    18	99.07
    19	186.20
    20	163.20
    21  165.03
    22  179.05
    23  241.15

 Atoms

	   1	1	1	0.0	0.0	0.0	0.0
	   2	1	2	0.0	0.0	0.0	3.81
	   3	1	3	-1.0	0.0	0.0	7.62
	   4	1	4	-1.0	0.0	0.0	11.43
	   5	1	5	0.0	0.0	0.0	15.24
	   6	1	6	0.0	0.0	0.0	19.05
	   7	1	7	0.5	0.0	0.0	22.86
	   8	1	8	0.0	0.0	0.0	26.67
	   9	1	9	1.0	0.0	0.0	30.48
	  10	1	10	0.0	0.0	0.0	34.29
	  11	1	11	0.0	0.0	0.0	38.1
	  12	1	12	0.0	0.0	0.0	41.91
	  13	1	13	0.0	0.0	0.0	45.72
	  14	1	14	0.0	0.0	0.0	49.53
	  15	1	15	1.0	0.0	0.0	53.34
	  16	1	16	0.0	0.0	0.0	57.15
	  17	1	17	0.0	0.0	0.0	60.96
	  18	1	18	0.0	0.0	0.0	64.77
	  19	1	19	0.0	0.0	0.0	68.58
	  20	1	20	0.0	0.0	0.0	72.39
	  21	1	21	-2.0	0.0	0.0	76.2
	  22	1	22	-2.0	0.0	0.0	80.01
	  23	1	23	-2.0	0.0	0.0	83.82
	  24	1	1	0.0	0.0	0.0	87.63
	  25	1	2	0.0	0.0	0.0	91.44
	  26	1	3	-1.0	0.0	0.0	95.25
	  27	1	4	-1.0	0.0	0.0	99.06
	  28	1	5	0.0	0.0	0.0	102.87
	  29	1	6	0.0	0.0	0.0	106.68
	  30	1	7	0.5	0.0	0.0	110.49
	  31	1	8	0.0	0.0	0.0	114.3
	  32	1	9	1.0	0.0	0.0	118.11
	  33	1	10	0.0	0.0	0.0	121.92
	  34	1	11	0.0	0.0	0.0	125.73
	  35	1	12	0.0	0.0	0.0	129.54
	  36	1	13	0.0	0.0	0.0	133.35
	  37	1	14	0.0	0.0	0.0	137.16
	  38	1	15	1.0	0.0	0.0	140.97
	  39	1	16	0.0	0.0	0.0	144.78
	  40	1	17	0.0	0.0	0.0	148.59
	  41	1	18	0.0	0.0	0.0	152.4
	  42	1	19	0.0	0.0	0.0	156.21
	  43	1	20	0.0	0.0	0.0	160.02
	  44	1	21	-2.0	0.0	0.0	163.83
	  45	1	22	-2.0	0.0	0.0	167.64
	  46	1	23	-2.0	0.0	0.0	171.45
	  47	1	1	0.0	0.0	0.0	175.26
	  48	1	2	0.0	0.0	0.0	179.07
	  49	1	3	-1.0	0.0	0.0	182.88
	  50	1	4	-1.0	0.0	0.0	186.69
	  51	1	5	0.0	0.0	0.0	190.5
	  52	1	6	0.0	0.0	0.0	194.31
	  53	1	7	0.5	0.0	0.0	198.12
	  54	1	8	0.0	0.0	0.0	201.93
	  55	1	9	1.0	0.0	0.0	205.74
	  56	1	10	0.0	0.0	0.0	209.55
	  57	1	11	0.0	0.0	0.0	213.36
	  58	1	12	0.0	0.0	0.0	217.17
	  59	1	13	0.0	0.0	0.0	220.98
	  60	1	14	0.0	0.0	0.0	224.79
	  61	1	15	1.0	0.0	0.0	228.6
	  62	1	16	0.0	0.0	0.0	232.41
	  63	1	17	0.0	0.0	0.0	236.22
	  64	1	18	0.0	0.0	0.0	240.03
	  65	1	19	0.0	0.0	0.0	243.84
	  66	1	20	0.0	0.0	0.0	247.65
	  67	1	21	-2.0	0.0	0.0	251.46
	  68	1	22	-2.0	0.0	0.0	255.27
	  69	1	23	-2.0	0.0	0.0	259.08
	  70	1	1	0.0	0.0	0.0	262.89
	  71	1	2	0.0	0.0	0.0	266.7
	  72	1	3	-1.0	0.0	0.0	270.51
	  73	1	4	-1.0	0.0	0.0	274.32
	  74	1	5	0.0	0.0	0.0	278.13
	  75	1	6	0.0	0.0	0.0	281.94
	  76	1	7	0.5	0.0	0.0	285.75
	  77	1	8	0.0	0.0	0.0	289.56
	  78	1	9	1.0	0.0	0.0	293.37
	  79	1	10	0.0	0.0	0.0	297.18
	  80	1	11	0.0	0.0	0.0	300.99
	  81	1	12	0.0	0.0	0.0	304.8
	  82	1	13	0.0	0.0	0.0	308.61
	  83	1	14	0.0	0.0	0.0	312.42
	  84	1	15	1.0	0.0	0.0	316.23
	  85	1	16	0.0	0.0	0.0	320.04
	  86	1	17	0.0	0.0	0.0	323.85
	  87	1	18	0.0	0.0	0.0	327.66
	  88	1	19	0.0	0.0	0.0	331.47
	  89	1	20	0.0	0.0	0.0	335.28
	  90	1	21	-2.0	0.0	0.0	339.09
	  91	1	22	-2.0	0.0	0.0	342.9
	  92	1	23	-2.0	0.0	0.0	346.71
	  93	1	1	0.0	0.0	0.0	350.52
	  94	1	2	0.0	0.0	0.0	354.33
	  95	1	3	-1.0	0.0	0.0	358.14
	  96	1	4	-1.0	0.0	0.0	361.95
	  97	1	5	0.0	0.0	0.0	365.76
	  98	1	6	0.0	0.0	0.0	369.57
	  99	1	7	0.5	0.0	0.0	373.38
	 100	1	8	0.0	0.0	0.0	377.19
	 101	1	9	1.0	0.0	0.0	381.0
	 102	1	10	0.0	0.0	0.0	384.81
	 103	1	11	0.0	0.0	0.0	388.62
	 104	1	12	0.0	0.0	0.0	392.43
	 105	1	13	0.0	0.0	0.0	396.24
	 106	1	14	0.0	0.0	0.0	400.05
	 107	1	15	1.0	0.0	0.0	403.86
	 108	1	16	0.0	0.0	0.0	407.67
	 109	1	17	0.0	0.0	0.0	411.48
	 110	1	18	0.0	0.0	0.0	415.29
	 111	1	19	0.0	0.0	0.0	419.1
	 112	1	20	0.0	0.0	0.0	422.91
	 113	1	21	-2.0	0.0	0.0	426.72
	 114	1	22	-2.0	0.0	0.0	430.53
	 115	1	23	-2.0	0.0	0.0	434.34
	 116	1	1	0.0	0.0	0.0	438.15
	 117	1	2	0.0	0.0	0.0	441.96
	 118	1	3	-1.0	0.0	0.0	445.77
	 119	1	4	-1.0	0.0	0.0	449.58
	 120	1	5	0.0	0.0	0.0	453.39
	 121	1	6	0.0	0.0	0.0	457.2
	 122	1	7	0.5	0.0	0.0	461.01
	 123	1	8	0.0	0.0	0.0	464.82
	 124	1	9	1.0	0.0	0.0	468.63
	 125	1	10	0.0	0.0	0.0	472.44
	 126	1	11	0.0	0.0	0.0	476.25
	 127	1	12	0.0	0.0	0.0	480.06
	 128	1	13	0.0	0.0	0.0	483.87
	 129	1	14	0.0	0.0	0.0	487.68
	 130	1	15	1.0	0.0	0.0	491.49
	 131	1	16	0.0	0.0	0.0	495.3
	 132	1	17	0.0	0.0	0.0	499.11
	 133	1	18	0.0	0.0	0.0	502.92
	 134	1	19	0.0	0.0	0.0	506.73
	 135	1	20	0.0	0.0	0.0	510.54
	 136	1	21	-2.0	0.0	0.0	514.35
	 137	1	22	-2.0	0.0	0.0	518.16
	 138	1	23	-2.0	0.0	0.0	521.97
	 139	1	1	0.0	0.0	0.0	525.78
	 140	1	2	0.0	0.0	0.0	529.59
	 141	1	3	-1.0	0.0	0.0	533.4
	 142	1	4	-1.0	0.0	0.0	537.21
	 143	1	5	0.0	0.0	0.0	541.02
	 144	1	6	0.0	0.0	0.0	544.83
	 145	1	7	0.5	0.0	0.0	548.64
	 146	1	8	0.0	0.0	0.0	552.45
	 147	1	9	1.0	0.0	0.0	556.26
	 148	1	10	0.0	0.0	0.0	560.07
	 149	1	11	0.0	0.0	0.0	563.88
	 150	1	12	0.0	0.0	0.0	567.69
	 151	1	13	0.0	0.0	0.0	571.5
	 152	1	14	0.0	0.0	0.0	575.31
	 153	1	15	1.0	0.0	0.0	579.12
	 154	1	16	0.0	0.0	0.0	582.93
	 155	1	17	0.0	0.0	0.0	586.74
	 156	1	18	0.0	0.0	0.0	590.55
	 157	1	19	0.0	0.0	0.0	594.36
	 158	1	20	0.0	0.0	0.0	598.17
	 159	1	21	-2.0	0.0	0.0	601.98
	 160	1	22	-2.0	0.0	0.0	605.79
	 161	1	23	-2.0	0.0	0.0	609.6
	 162	1	1	0.0	0.0	0.0	613.41
	 163	1	2	0.0	0.0	0.0	617.22
	 164	1	3	-1.0	0.0	0.0	621.03
	 165	1	4	-1.0	0.0	0.0	624.84
	 166	1	5	0.0	0.0	0.0	628.65
	 167	1	6	0.0	0.0	0.0	632.46
	 168	1	7	0.5	0.0	0.0	636.27
	 169	1	8	0.0	0.0	0.0	640.08
	 170	1	9	1.0	0.0	0.0	643.89
	 171	1	10	0.0	0.0	0.0	647.7
	 172	1	11	0.0	0.0	0.0	651.51
	 173	1	12	0.0	0.0	0.0	655.32
	 174	1	13	0.0	0.0	0.0	659.13
	 175	1	14	0.0	0.0	0.0	662.94
	 176	1	15	1.0	0.0	0.0	666.75
	 177	1	16	0.0	0.0	0.0	670.56
	 178	1	17	0.0	0.0	0.0	674.37
	 179	1	18	0.0	0.0	0.0	678.18
	 180	1	19	0.0	0.0	0.0	681.99
	 181	1	20	0.0	0.0	0.0	685.8
	 182	1	21	-2.0	0.0	0.0	689.61
	 183	1	22	-2.0	0.0	0.0	693.42
	 184	1	23	-2.0	0.0	0.0	697.23
	 185	1	1	0.0	0.0	0.0	701.04
	 186	1	2	0.0	0.0	0.0	704.85
	 187	1	3	-1.0	0.0	0.0	708.66
	 188	1	4	-1.0	0.0	0.0	712.47
	 189	1	5	0.0	0.0	0.0	716.28
	 190	1	6	0.0	0.0	0.0	720.09
	 191	1	7	0.5	0.0	0.0	723.9
	 192	1	8	0.0	0.0	0.0	727.71
	 193	1	9	1.0	0.0	0.0	731.52
	 194	1	10	0.0	0.0	0.0	735.33
	 195	1	11	0.0	0.0	0.0	739.14
	 196	1	12	0.0	0.0	0.0	742.95
	 197	1	13	0.0	0.0	0.0	746.76
	 198	1	14	0.0	0.0	0.0	750.57
	 199	1	15	1.0	0.0	0.0	754.38
	 200	1	16	0.0	0.0	0.0	758.19

Bonds

1 1 1 2
2 1 2 3
3 1 3 4
4 1 4 5
5 1 5 6
6 1 6 7
7 1 7 8
8 1 8 9
9 1 9 10
10 1 10 11
11 1 11 12
12 1 12 13
13 1 13 14
14 1 14 15
15 1 15 16
16 1 16 17
17 1 17 18
18 1 18 19
19 1 19 20
20 1 20 21
21 1 21 22
22 1 22 23
23 1 23 24
24 1 24 25
25 1 25 26
26 1 26 27
27 1 27 28
28 1 28 29
29 1 29 30
30 1 30 31
31 1 31 32
32 1 32 33
33 1 33 34
34 1 34 35
35 1 35 36
36 1 36 37
37 1 37 38
38 1 38 39
39 1 39 40
40 1 40 41
41 1 41 42
42 1 42 43
43 1 43 44
44 1 44 45
45 1 45 46
46 1 46 47
47 1 47 48
48 1 48 49
49 1 49 50
50 1 50 51
51 1 51 52
52 1 52 53
53 1 53 54
54 1 54 55
55 1 55 56
56 1 56 57
57 1 57 58
58 1 58 59
59 1 59 60
60 1 60 61
61 1 61 62
62 1 62 63
63 1 63 64
64 1 64 65
65 1 65 66
66 1 66 67
67 1 67 68
68 1 68 69
69 1 69 70
70 1 70 71
71 1 71 72
72 1 72 73
73 1 73 74
74 1 74 75
75 1 75 76
76 1 76 77
77 1 77 78
78 1 78 79
79 1 79 80
80 1 80 81
81 1 81 82
82 1 82 83
83 1 83 84
84 1 84 85
85 1 85 86
86 1 86 87
87 1 87 88
88 1 88 89
89 1 89 90
90 1 90 91
91 1 91 92
92 1 92 93
93 1 93 94
94 1 94 95
95 1 95 96
96 1 96 97
97 1 97 98
98 1 98 99
99 1 99 100
100 1 100 101
101 1 101 102
102 1 102 103
103 1 103 104
104 1 104 105
105 1 105 106
106 1 106 107
107 1 107 108
108 1 108 109
109 1 109 110
110 1 110 111
111 1 111 112
112 1 112 113
113 1 113 114
114 1 114 115
115 1 115 116
116 1 116 117
117 1 117 118
118 1 118 119
119 1 119 120
120 1 120 121
121 1 121 122
122 1 122 123
123 1 123 124
124 1 124 125
125 1 125 126
126 1 126 127
127 1 127 128
128 1 128 129
129 1 129 130
130 1 130 131
131 1 131 132
132 1 132 133
133 1 133 134
134 1 134 135
135 1 135 136
136 1 136 137
137 1 137 138
138 1 138 139
139 1 139 140
140 1 140 141
141 1 141 142
142 1 142 143
143 1 143 144
144 1 144 145
145 1 145 146
146 1 146 147
147 1 147 148
148 1 148 149
149 1 149 150
150 1 150 151
151 1 151 152
152 1 152 153
153 1 153 154
154 1 154 155
155 1 155 156
156 1 156 157
157 1 157 158
158 1 158 159
159 1 159 160
160 1 160 161
161 1 161 162
162 1 162 163
163 1 163 164
164 1 164 165
165 1 165 166
166 1 166 167
167 1 167 168
168 1 168 169
169 1 169 170
170 1 170 171
171 1 171 172
172 1 172 173
173 1 173 174
174 1 174 175
175 1 175 176
176 1 176 177
177 1 177 178
178 1 178 179
179 1 179 180
180 1 180 181
181 1 181 182
182 1 182 183
183 1 183 184
184 1 184 185
185 1 185 186
186 1 186 187
187 1 187 188
188 1 188 189
189 1 189 190
190 1 190 191
191 1 191 192
192 1 192 193
193 1 193 194
194 1 194 195
195 1 195 196
196 1 196 197
197 1 197 198
198 1 198 199
199 1 199 200
