LAMMPS data file via write_data, version 15 May 2015, timestep = 100000

200 atoms
23 atom types
199 bonds
1 bond types

-2.5000000000000000e+02 2.5000000000000000e+02 xlo xhi
-2.5000000000000000e+02 2.5000000000000000e+02 ylo yhi
-2.5000000000000000e+02 2.5000000000000000e+02 zlo zhi

Masses

1 71.08
2 103.1
3 115.1
4 129.1
5 147.2
6 57.05
7 137.1
8 113.2
9 128.2
10 113.2
11 131.2
12 114.1
13 97.12
14 128.1
15 156.2
16 87.08
17 101.1
18 99.07
19 186.2
20 163.2
21 165.03
22 179.05
23 241.15

Bond Coeffs # harmonic

1 189 3.81

Atoms # full

40 1 17 0.0000000000000000e+00 -2.1907296915795477e-01 -1.0227840972699799e+01 9.3356817270040118e+00 0 0 0
37 1 14 0.0000000000000000e+00 3.3713573282900970e-02 6.1847705517631058e-01 9.9830484124174728e+00 0 0 0
41 1 18 0.0000000000000000e+00 -3.7802874674117812e+00 -9.5860619981652970e+00 7.9670155335524857e+00 0 0 0
7 1 7 5.0000000000000000e-01 2.7779612284814021e+00 8.5406408346781078e+00 9.0933150849285305e+00 0 0 0
42 1 19 0.0000000000000000e+00 -4.9161360274653250e+00 -6.3510398301097917e+00 9.6712325088803048e+00 0 0 0
5 1 5 0.0000000000000000e+00 4.5976510097382564e+00 1.4377458058999066e+01 4.5143894080354698e+00 0 0 0
4 1 4 -1.0000000000000000e+00 7.1491309845900313e+00 1.7234808686251245e+01 4.5426031258034882e+00 0 0 0
6 1 6 0.0000000000000000e+00 4.0057210391128182e+00 1.1338270746397207e+01 6.7780013240904706e+00 0 0 0
3 1 3 -1.0000000000000000e+00 8.8458042660084981e+00 2.0252661490455019e+01 6.1452627028448257e+00 0 0 0
2 1 2 0.0000000000000000e+00 6.4530425402953213e+00 2.2461298277299015e+01 8.1808775178894635e+00 0 0 0
1 1 1 0.0000000000000000e+00 6.8597515498606096e+00 2.6179639528091414e+01 9.0272253247879828e+00 0 0 0
69 1 23 -2.0000000000000000e+00 1.7264270952997020e+01 -3.0098943240086680e+01 2.0205312756028452e+01 0 0 0
67 1 21 -2.0000000000000000e+00 2.2512476559182961e+01 -3.0170008925996012e+01 1.4910568550725836e+01 0 0 0
27 1 4 -1.0000000000000000e+00 8.3023978638988591e+00 -1.4177578705642409e+01 1.2314661242286880e+01 0 0 0
50 1 4 -1.0000000000000000e+00 4.4977887757647805e-01 -1.6864950329755700e+01 2.9327948912622833e+01 0 0 0
51 1 5 0.0000000000000000e+00 4.0437211526282528e+00 -1.6223830252144641e+01 2.8283284072254553e+01 0 0 0
49 1 3 -1.0000000000000000e+00 -2.0725612748186979e+00 -1.8508334577026822e+01 2.6940346178657510e+01 0 0 0
52 1 6 0.0000000000000000e+00 4.4862413102074896e+00 -1.5551731469472095e+01 2.4471937364941365e+01 0 0 0
53 1 7 5.0000000000000000e-01 5.7458165871339011e+00 -1.4831076905726007e+01 2.0963682882781573e+01 0 0 0
48 1 2 0.0000000000000000e+00 -1.5881434863699071e+00 -1.8423913375891971e+01 2.3120406661451398e+01 0 0 0
54 1 8 0.0000000000000000e+00 6.9188088504979808e+00 -1.1270823723794454e+01 2.1081744338088722e+01 0 0 0
47 1 1 0.0000000000000000e+00 -1.8671452336435077e-01 -1.4914063465067445e+01 2.2815983772578868e+01 0 0 0
73 1 4 -1.0000000000000000e+00 9.2690715295392589e+00 -2.4017490712127039e+01 2.7786357548665752e+01 0 0 0
28 1 5 0.0000000000000000e+00 6.2764848107635816e+00 -1.1769715690572005e+01 1.0225355364439910e+01 0 0 0
46 1 23 -2.0000000000000000e+00 -2.1430607208715911e+00 -1.1895187194753115e+01 2.1397728483071059e+01 0 0 0
29 1 6 0.0000000000000000e+00 4.5524931379415019e+00 -1.1606576771907703e+01 1.3596502286872015e+01 0 0 0
106 1 14 0.0000000000000000e+00 8.2205300948721476e+00 -1.0127730390958323e+01 2.8286249722572471e+01 0 0 0
68 1 22 -2.0000000000000000e+00 1.9216593818901060e+01 -2.9971228218943587e+01 1.6883413148173407e+01 0 0 0
70 1 1 0.0000000000000000e+00 1.3668387885874342e+01 -2.9999420502762419e+01 2.1175186143946323e+01 0 0 0
71 1 2 0.0000000000000000e+00 1.3053891018231992e+01 -2.9332329837286842e+01 2.4908118337378564e+01 0 0 0
72 1 3 -1.0000000000000000e+00 1.0490234677573893e+01 -2.6505736008857607e+01 2.5170737137833623e+01 0 0 0
26 1 3 -1.0000000000000000e+00 1.1475967173569499e+01 -1.2209597944335302e+01 1.3276925272438387e+01 0 0 0
55 1 9 1.0000000000000000e+00 1.0705163258624911e+01 -1.1050376082703837e+01 2.0954772603911284e+01 0 0 0
66 1 20 0.0000000000000000e+00 2.3534398480513076e+01 -2.7182965843356016e+01 1.2843056443167063e+01 0 0 0
64 1 18 0.0000000000000000e+00 2.6768154270342830e+01 -2.1424800337691778e+01 1.4108877762809652e+01 0 0 0
63 1 17 0.0000000000000000e+00 2.7345481445729536e+01 -2.1519375724437822e+01 1.7805538794055408e+01 0 0 0
65 1 19 0.0000000000000000e+00 2.3982410818833014e+01 -2.3439917016021276e+01 1.2318143474419204e+01 0 0 0
61 1 15 1.0000000000000000e+00 2.6927591616728570e+01 -1.4872485717572212e+01 1.7211975200328986e+01 0 0 0
62 1 16 0.0000000000000000e+00 2.5493944941224342e+01 -1.8252110699884831e+01 1.8314615506108424e+01 0 0 0
60 1 14 0.0000000000000000e+00 2.6759962042674587e+01 -1.1169931355051091e+01 1.6535607536459860e+01 0 0 0
58 1 12 0.0000000000000000e+00 2.1466181000440464e+01 -1.1709870335651525e+01 2.0643616806781118e+01 0 0 0
57 1 11 0.0000000000000000e+00 1.8277202564740737e+01 -1.0122870295306241e+01 2.1888434570425272e+01 0 0 0
56 1 10 0.0000000000000000e+00 1.4524441756103892e+01 -1.0778867602773447e+01 2.1271674325206671e+01 0 0 0
39 1 16 0.0000000000000000e+00 9.6188269359899714e-01 -6.7396616532434903e+00 1.0370922469138733e+01 0 0 0
38 1 15 1.0000000000000000e+00 1.0418117997732907e+00 -2.9927022237913805e+00 1.0916671915556185e+01 0 0 0
8 1 8 0.0000000000000000e+00 4.4846610620431173e+00 7.6353799226010990e+00 1.2360894754502258e+01 0 0 0
36 1 13 0.0000000000000000e+00 6.7985476415451740e-01 3.1371721296819919e+00 1.2798887909486181e+01 0 0 0
34 1 11 0.0000000000000000e+00 -6.2559304731662779e-01 2.4395940544343113e+00 1.9449203356327896e+01 0 0 0
35 1 12 0.0000000000000000e+00 -5.9561106398578556e-01 4.3321294125603655e+00 1.6167656068734491e+01 0 0 0
32 1 9 1.0000000000000000e+00 4.2251192956382519e+00 -2.4109720137637107e+00 1.7829755431878166e+01 0 0 0
44 1 21 -2.0000000000000000e+00 -2.5960914686240351e+00 -5.8577296532405940e+00 1.6855847289635690e+01 0 0 0
45 1 22 -2.0000000000000000e+00 -2.5980435358579088e+00 -8.5672018609176526e+00 1.9547869251029937e+01 0 0 0
43 1 20 0.0000000000000000e+00 -4.0763804926237954e+00 -5.8970977239938192e+00 1.3319259225401822e+01 0 0 0
33 1 10 0.0000000000000000e+00 1.2573032230783820e+00 -7.8882568461745584e-01 1.9570697013038092e+01 0 0 0
18 1 18 0.0000000000000000e+00 5.1482850348390441e+00 1.6492184401359122e-01 2.7747279266183440e+01 0 0 0
19 1 19 0.0000000000000000e+00 7.0918343448392989e+00 -1.4880513823583637e+00 2.4920586603001684e+01 0 0 0
16 1 16 0.0000000000000000e+00 2.4014672390238192e+00 6.5802597195229184e+00 2.8647727707426313e+01 0 0 0
17 1 17 0.0000000000000000e+00 3.5482236209506328e+00 3.5924211394173495e+00 2.6878528550491740e+01 0 0 0
30 1 7 5.0000000000000000e-01 4.0141831187643389e+00 -8.8079961301797756e+00 1.6066938433026742e+01 0 0 0
31 1 8 0.0000000000000000e+00 3.9306542468727215e+00 -6.1210300639694344e+00 1.8725498933548291e+01 0 0 0
13 1 13 0.0000000000000000e+00 6.3011874438766871e+00 8.8432427033114500e+00 2.3945090055546423e+01 0 0 0
10 1 10 0.0000000000000000e+00 5.8455559171171592e+00 3.9116381569939613e+00 1.8262694345880778e+01 0 0 0
12 1 12 0.0000000000000000e+00 8.8331509686958434e+00 6.3154461759194565e+00 2.2869509847563972e+01 0 0 0
11 1 11 0.0000000000000000e+00 8.6431608582414121e+00 3.2018070490450912e+00 2.0671391762794663e+01 0 0 0
9 1 9 1.0000000000000000e+00 6.6204176483538255e+00 5.7744113828848835e+00 1.5053410113082508e+01 0 0 0
25 1 2 0.0000000000000000e+00 1.0909072425694257e+01 -8.4318127946597770e+00 1.2520879048479127e+01 0 0 0
59 1 13 0.0000000000000000e+00 2.3947158451818211e+01 -9.7293856868796649e+00 1.8661230727898648e+01 0 0 0
20 1 20 0.0000000000000000e+00 1.0101126245159525e+01 -3.6358595957573914e+00 2.3734132426596208e+01 0 0 0
21 1 21 -2.0000000000000000e+00 1.1374865998735363e+01 -3.3913354187618174e+00 2.0064065151952235e+01 0 0 0
24 1 1 0.0000000000000000e+00 1.4584397218308649e+01 -7.1969001360057847e+00 1.2718135544826399e+01 0 0 0
23 1 23 -2.0000000000000000e+00 1.6127316178473624e+01 -4.7613564473644336e+00 1.5260971048799250e+01 0 0 0
22 1 22 -2.0000000000000000e+00 1.2852827601694017e+01 -3.2739841851878206e+00 1.6615146827323027e+01 0 0 0
105 1 13 0.0000000000000000e+00 1.0674338362854066e+01 -7.3863728208366375e+00 2.9289545037337515e+01 0 0 0
14 1 14 0.0000000000000000e+00 5.4683284220492734e+00 1.1840333498778369e+01 2.6044663903563244e+01 0 0 0
15 1 15 1.0000000000000000e+00 3.5132258195250681e+00 1.0160916997323854e+01 2.8816945988561869e+01 0 0 0
79 1 10 0.0000000000000000e+00 4.0962542470200445e+00 -3.1629712673728967e+01 3.5659131066213710e+01 0 0 0
78 1 9 1.0000000000000000e+00 5.2230594184648460e+00 -3.0740562947093110e+01 3.2088085443261377e+01 0 0 0
77 1 8 0.0000000000000000e+00 8.9604708017581078e+00 -3.1313063636141052e+01 3.1631100957625385e+01 0 0 0
80 1 11 0.0000000000000000e+00 5.0178061796037881e+00 -3.1181312294090574e+01 3.9347636398161889e+01 0 0 0
107 1 15 1.0000000000000000e+00 6.7496454010525024e+00 -1.1496328299010784e+01 3.1449287496634081e+01 0 0 0
81 1 12 0.0000000000000000e+00 7.9280430251633698e+00 -2.9443538116047254e+01 4.1148300846586523e+01 0 0 0
82 1 13 0.0000000000000000e+00 9.1585377967999033e+00 -2.5868062232968249e+01 4.0592036884777762e+01 0 0 0
83 1 14 0.0000000000000000e+00 8.3992196895500655e+00 -2.3127107823486426e+01 4.3131168727661169e+01 0 0 0
76 1 7 5.0000000000000000e-01 1.0697230090820502e+01 -2.8988744913017943e+01 3.4165705332444325e+01 0 0 0
74 1 5 0.0000000000000000e+00 1.1889985701806191e+01 -2.2929072722214915e+01 3.0309471344113458e+01 0 0 0
75 1 6 0.0000000000000000e+00 1.2121530365049532e+01 -2.5641723051050384e+01 3.2943133023594136e+01 0 0 0
84 1 15 1.0000000000000000e+00 1.0151975548649233e+01 -1.9897917195023972e+01 4.4356190635821868e+01 0 0 0
85 1 16 0.0000000000000000e+00 1.2695734695440688e+01 -1.7852545028505467e+01 4.2395546897183600e+01 0 0 0
86 1 17 0.0000000000000000e+00 1.2697996263837467e+01 -1.5497722942294716e+01 3.9458356668563098e+01 0 0 0
87 1 18 0.0000000000000000e+00 1.5483174062520423e+01 -1.4196211878965913e+01 3.7152531767109814e+01 0 0 0
88 1 19 0.0000000000000000e+00 1.7077718876954449e+01 -1.4969762720524823e+01 3.3742545705203582e+01 0 0 0
89 1 20 0.0000000000000000e+00 2.0600901699130556e+01 -1.4043647991487692e+01 3.2512543504892648e+01 0 0 0
90 1 21 -2.0000000000000000e+00 2.2732577679207658e+01 -1.0932239421269918e+01 3.3137045679955634e+01 0 0 0
108 1 16 0.0000000000000000e+00 5.7648606151525330e+00 -9.1462241546420273e+00 3.4328883931458769e+01 0 0 0
103 1 11 0.0000000000000000e+00 9.8809230398911225e+00 -2.0050635001882187e+00 3.3693317023109174e+01 0 0 0
109 1 17 0.0000000000000000e+00 2.8078139197649570e+00 -6.8095924113639876e+00 3.3977024815126015e+01 0 0 0
110 1 18 0.0000000000000000e+00 2.2643894853353186e+00 -3.0906298827166965e+00 3.3138147009481287e+01 0 0 0
111 1 19 0.0000000000000000e+00 1.7902065047817823e+00 -2.0600572151941257e-01 3.5580661208091421e+01 0 0 0
112 1 20 0.0000000000000000e+00 1.8216298728763993e+00 2.8575362096633272e+00 3.3319758720926345e+01 0 0 0
122 1 7 5.0000000000000000e-01 -8.8633408895791854e-01 8.0260455870780660e+00 4.9447507767304941e+01 0 0 0
113 1 21 -2.0000000000000000e+00 1.3085635208602484e-02 5.7998824722424889e+00 3.5015739641653980e+01 0 0 0
114 1 22 -2.0000000000000000e+00 -2.8606087491165408e+00 6.6888801262885051e+00 3.7353563682750689e+01 0 0 0
115 1 23 -2.0000000000000000e+00 -4.7823910636649014e+00 9.8490480379293803e+00 3.8232145929155585e+01 0 0 0
124 1 9 1.0000000000000000e+00 3.6193376699148372e+00 8.3387285025488413e+00 4.3815780256284761e+01 0 0 0
102 1 10 0.0000000000000000e+00 8.1293227568175173e+00 -4.3809945587824926e+00 3.6098394813161590e+01 0 0 0
123 1 8 0.0000000000000000e+00 1.8082728094568947e+00 7.0296779256751885e+00 4.6951509049568088e+01 0 0 0
101 1 9 1.0000000000000000e+00 7.2112663645491706e+00 -1.9905597556458223e+00 3.8845988350110147e+01 0 0 0
100 1 8 0.0000000000000000e+00 8.6820051790513233e+00 1.4622183984318864e+00 3.9197302477746007e+01 0 0 0
93 1 1 0.0000000000000000e+00 2.7359023151055343e+01 -1.9713006357604961e+00 3.3511085685808837e+01 0 0 0
104 1 12 0.0000000000000000e+00 1.0394749970190464e+01 -3.7332196698775193e+00 3.0367234132135419e+01 0 0 0
99 1 7 5.0000000000000000e-01 1.1708390919500069e+01 3.5927983091369264e+00 3.8190960560127195e+01 0 0 0
98 1 6 0.0000000000000000e+00 1.3584904052182097e+01 8.5603270231391471e-01 3.6516679379966114e+01 0 0 0
97 1 5 0.0000000000000000e+00 1.7187452223287750e+01 5.1437929874687705e-01 3.5132732547667786e+01 0 0 0
91 1 22 -2.0000000000000000e+00 2.4695672776869987e+01 -7.6701416266810138e+00 3.3379765652369073e+01 0 0 0
92 1 23 -2.0000000000000000e+00 2.7901424019046882e+01 -5.6490389724724999e+00 3.3970961919755418e+01 0 0 0
94 1 2 0.0000000000000000e+00 2.5217824328538345e+01 -1.8476612157616235e-01 3.1022332211465205e+01 0 0 0
95 1 3 -1.0000000000000000e+00 2.1771157124758403e+01 -1.8356981572098128e+00 3.0639332128793530e+01 0 0 0
96 1 4 -1.0000000000000000e+00 1.8174367280378281e+01 -1.3302180835884865e+00 3.1919178852599675e+01 0 0 0
119 1 4 -1.0000000000000000e+00 -8.0383309531853158e+00 1.0188299449421065e+01 4.9995809654490792e+01 0 0 0
118 1 3 -1.0000000000000000e+00 -7.1586550405862468e+00 1.2843681593157001e+01 4.7406286586477613e+01 0 0 0
117 1 2 0.0000000000000000e+00 -6.4108385478921646e+00 1.2867467590244329e+01 4.3742609863759142e+01 0 0 0
116 1 1 0.0000000000000000e+00 -3.8272329694877136e+00 1.0769073313088960e+01 4.1865941777734236e+01 0 0 0
127 1 12 0.0000000000000000e+00 1.9015446260883302e+00 1.6907976504585037e+01 3.8579199995413120e+01 0 0 0
128 1 13 0.0000000000000000e+00 5.2095683593886610e+00 1.8175699966600117e+01 3.9833102739155812e+01 0 0 0
126 1 11 0.0000000000000000e+00 2.4900770524125044e+00 1.3164902305064244e+01 3.8842190379948178e+01 0 0 0
125 1 10 0.0000000000000000e+00 4.1938952555335147e+00 1.0249211836710199e+01 4.0682990959572777e+01 0 0 0
129 1 14 0.0000000000000000e+00 6.1997380730879392e+00 1.9376591328288551e+01 3.6207573675440770e+01 0 0 0
130 1 15 1.0000000000000000e+00 9.3259961044858208e+00 1.8414273094453648e+01 3.4196290626300133e+01 0 0 0
131 1 16 0.0000000000000000e+00 9.4260704606016805e+00 1.4718492020205133e+01 3.2875892156924493e+01 0 0 0
154 1 16 0.0000000000000000e+00 4.3099877071796682e+00 1.5422820796585675e+01 4.9182006883150670e+01 0 0 0
133 1 18 0.0000000000000000e+00 1.1028619561906298e+01 1.2247381583114713e+01 3.7933806302219004e+01 0 0 0
134 1 19 0.0000000000000000e+00 1.1530358241397963e+01 1.2789871274047034e+01 4.1639495901183707e+01 0 0 0
135 1 20 0.0000000000000000e+00 1.3526155577231821e+01 1.3346641535388200e+01 4.4799839002691904e+01 0 0 0
132 1 17 0.0000000000000000e+00 1.0469512510723552e+01 1.1302881650865283e+01 3.4320547567788672e+01 0 0 0
136 1 21 -2.0000000000000000e+00 1.3264839069124323e+01 1.5104744150707202e+01 4.8201228208733340e+01 0 0 0
145 1 7 5.0000000000000000e-01 4.9447509115321298e+00 -1.1107511964207754e+01 5.8124686487763924e+01 0 0 0
120 1 5 0.0000000000000000e+00 -7.3721691361408634e+00 8.8206946064122604e+00 5.3489557019932420e+01 0 0 0
121 1 6 0.0000000000000000e+00 -3.9823342146810643e+00 8.2232196136102562e+00 5.1803515623976566e+01 0 0 0
151 1 13 0.0000000000000000e+00 5.3253885534671470e+00 4.9233065180292499e+00 5.2466224577054355e+01 0 0 0
142 1 4 -1.0000000000000000e+00 9.7541191720574947e+00 -1.6744149466888458e+00 5.7289462232618092e+01 0 0 0
162 1 1 0.0000000000000000e+00 -1.5787920871823511e+00 4.0791535535960737e+00 6.1783463323964448e+01 0 0 0
148 1 10 0.0000000000000000e+00 1.3518978963428536e+00 -3.8997881422569223e+00 5.3658854978436175e+01 0 0 0
147 1 9 1.0000000000000000e+00 9.6584005434517861e-01 -7.6230700694440197e+00 5.4424612010866518e+01 0 0 0
164 1 3 -1.0000000000000000e+00 1.2499801053076174e+00 -4.4286182122477030e-01 6.6824631776407230e+01 0 0 0
163 1 2 0.0000000000000000e+00 5.1520481757862702e-01 1.5328229784419416e+00 6.3698703765878371e+01 0 0 0
150 1 12 0.0000000000000000e+00 5.7318343923477766e+00 1.2400546276331115e+00 5.3071524891834720e+01 0 0 0
161 1 23 -2.0000000000000000e+00 -2.1976234446891074e+00 7.8201047372507215e+00 6.2375530933679137e+01 0 0 0
149 1 11 0.0000000000000000e+00 4.6333151090421563e+00 -2.4064575842534248e+00 5.2597320436085056e+01 0 0 0
146 1 8 0.0000000000000000e+00 1.3869475128022799e+00 -9.9515727845076629e+00 5.7364862437445268e+01 0 0 0
175 1 14 0.0000000000000000e+00 8.2052694694303501e+00 9.3963252772226085e+00 5.9750706012525875e+01 0 0 0
152 1 14 0.0000000000000000e+00 5.0896211653397652e+00 8.7172658684722961e+00 5.2256846860754614e+01 0 0 0
172 1 11 0.0000000000000000e+00 3.0613167218942903e+00 9.3380001940376776e+00 6.7352099590506668e+01 0 0 0
176 1 15 1.0000000000000000e+00 8.6731753600409487e+00 5.6883216928401437e+00 6.0679762503809492e+01 0 0 0
177 1 16 0.0000000000000000e+00 9.6878993139800151e+00 2.7963413202249563e+00 6.2924250314173335e+01 0 0 0
144 1 6 0.0000000000000000e+00 6.9193917716134719e+00 -8.0431156599971914e+00 5.9337065160953408e+01 0 0 0
143 1 5 0.0000000000000000e+00 9.3320100064463958e+00 -5.3704826321110843e+00 5.8100576599740528e+01 0 0 0
141 1 3 -1.0000000000000000e+00 1.2029474363851143e+01 9.5436683606142203e-01 5.5808732164916918e+01 0 0 0
140 1 2 0.0000000000000000e+00 1.2943791647967302e+01 4.6855729818748380e+00 5.6252539692164994e+01 0 0 0
180 1 19 0.0000000000000000e+00 1.7387910526386843e+01 -2.8334708916396028e+00 6.4655909515508441e+01 0 0 0
179 1 18 0.0000000000000000e+00 1.3992036580212460e+01 -1.8998001210141586e+00 6.6166651641414305e+01 0 0 0
181 1 20 0.0000000000000000e+00 1.9254865489710514e+01 -4.0139264545959987e+00 6.7754860661128703e+01 0 0 0
178 1 17 0.0000000000000000e+00 1.2588527600174027e+01 3.9902009760131912e-01 6.3500158946906140e+01 0 0 0
139 1 1 0.0000000000000000e+00 1.1472974332202220e+01 8.1657129890170808e+00 5.5567580832794675e+01 0 0 0
173 1 12 0.0000000000000000e+00 6.4160737880618948e+00 1.0090964582487681e+01 6.5814006317535799e+01 0 0 0
174 1 13 0.0000000000000000e+00 6.2678408926406473e+00 1.1495842883590973e+01 6.2249249118827969e+01 0 0 0
160 1 22 -2.0000000000000000e+00 -3.1815651872614854e+00 1.1101347652286567e+01 6.0744813198304023e+01 0 0 0
159 1 21 -2.0000000000000000e+00 -5.2963648097127960e+00 1.4008777249700794e+01 5.9508510209852425e+01 0 0 0
153 1 15 1.0000000000000000e+00 4.2945878409555167e+00 1.2311713245266516e+01 5.1357651237273593e+01 0 0 0
155 1 17 0.0000000000000000e+00 1.7421174675738458e+00 1.7828430874054551e+01 5.0691383891097814e+01 0 0 0
156 1 18 0.0000000000000000e+00 -6.5687402541343476e-01 1.9769157691408179e+01 5.2940982186180854e+01 0 0 0
157 1 19 0.0000000000000000e+00 -3.2744019505732438e+00 1.7942967623740394e+01 5.4933239837665681e+01 0 0 0
158 1 20 0.0000000000000000e+00 -6.1579281506947909e+00 1.5734549697608079e+01 5.6233496738799019e+01 0 0 0
137 1 22 -2.0000000000000000e+00 1.0761034065470984e+01 1.3468229531245555e+01 5.0552839465474293e+01 0 0 0
138 1 23 -2.0000000000000000e+00 1.1393111352971545e+01 1.1598037293930037e+01 5.3813357346083869e+01 0 0 0
165 1 4 -1.0000000000000000e+00 7.4957144415077212e-02 -1.6037814525097756e+00 7.0277688575965684e+01 0 0 0
171 1 10 0.0000000000000000e+00 2.8066229729239045e+00 6.6461982777642321e+00 7.0078335253714059e+01 0 0 0
170 1 9 1.0000000000000000e+00 5.7852764244514274e+00 7.5531904542940937e+00 7.2283452793378856e+01 0 0 0
166 1 5 0.0000000000000000e+00 1.3920801338793540e+00 2.7485021363899059e-01 7.3249171027500395e+01 0 0 0
169 1 8 0.0000000000000000e+00 8.1043221018828930e+00 5.4008613003981978e+00 7.4437802374869634e+01 0 0 0
167 1 6 0.0000000000000000e+00 3.4660988444450336e+00 1.1272110116252694e-01 7.6483282810836968e+01 0 0 0
168 1 7 5.0000000000000000e-01 6.5016925111021724e+00 2.4802995550437124e+00 7.6400430927673639e+01 0 0 0
198 1 14 0.0000000000000000e+00 -4.0759619386149835e+00 8.9239159705902598e+00 8.8837680192874785e+01 0 0 0
191 1 7 5.0000000000000000e-01 3.7259387280651035e+00 8.9013000630323607e+00 7.9350053507438489e+01 0 0 0
192 1 8 0.0000000000000000e+00 1.9509811535400552e+00 6.5073497179726969e+00 7.7016287126764823e+01 0 0 0
194 1 10 0.0000000000000000e+00 -4.7403785391977751e+00 7.9453188155635113e+00 7.8230610550937627e+01 0 0 0
193 1 9 1.0000000000000000e+00 -1.8213923764679576e+00 6.5349070277866836e+00 7.6193405572484750e+01 0 0 0
195 1 11 0.0000000000000000e+00 -7.3602348108170172e+00 8.6118235153734943e+00 8.0985826615134172e+01 0 0 0
200 1 16 0.0000000000000000e+00 -2.5797771227875357e+00 2.8694085096210418e+00 8.9814303846999962e+01 0 0 0
199 1 15 1.0000000000000000e+00 -5.0618437792607986e+00 5.2917439636887824e+00 8.8402287800194614e+01 0 0 0
182 1 21 -2.0000000000000000e+00 2.1385480333061757e+01 -1.8420980276115799e+00 7.0063575470125443e+01 0 0 0
183 1 22 -2.0000000000000000e+00 2.1885568502347940e+01 8.2399122367929301e-01 7.2728277990287111e+01 0 0 0
185 1 1 0.0000000000000000e+00 1.9914319154473354e+01 7.3780939008822433e+00 7.4112452387002079e+01 0 0 0
184 1 23 -2.0000000000000000e+00 1.9550224557224698e+01 3.5852558058442008e+00 7.3894210256916452e+01 0 0 0
197 1 13 0.0000000000000000e+00 -7.0893541111639733e+00 1.0867908463034635e+01 8.7417023628228137e+01 0 0 0
196 1 12 0.0000000000000000e+00 -6.8471323341087222e+00 1.1225299328518775e+01 8.3676590622806387e+01 0 0 0
190 1 6 0.0000000000000000e+00 6.1764802182511458e+00 1.1472524605057405e+01 7.7958854647148200e+01 0 0 0
189 1 5 0.0000000000000000e+00 9.9508028541746629e+00 1.1038486277388246e+01 7.7548564132278244e+01 0 0 0
186 1 2 0.0000000000000000e+00 1.9017017939038016e+01 1.0537500122565804e+01 7.5976694999555363e+01 0 0 0
187 1 3 -1.0000000000000000e+00 1.6414128476203942e+01 1.2041453215657418e+01 7.8355276684741341e+01 0 0 0
188 1 4 -1.0000000000000000e+00 1.2850539242343229e+01 1.3217279578564122e+01 7.8707921504710356e+01 0 0 0

Velocities

40 -4.3097644535600968e-04 9.7585579393703480e-04 2.3925661121508637e-03
37 -2.4173813392891917e-04 6.8981902611779558e-04 -1.9130266320537626e-03
41 1.0387209796247705e-03 -5.3661306310515328e-04 1.7144950626669564e-03
7 -2.7352159017388918e-04 -2.5749960447111519e-03 3.4442401265786632e-03
42 9.4898147733564063e-04 -5.4448363743830040e-04 2.5622139737100069e-04
5 7.0025484644188466e-04 1.1571207298554337e-03 1.8335130038902578e-03
4 3.0237555052523182e-03 -6.7070171523784129e-04 5.0339408407138169e-04
6 2.3457856117978124e-04 2.2230939925943597e-04 1.9248831465464391e-03
3 -4.4199600693864421e-04 1.0706648695863103e-03 -1.0565312163334803e-03
2 6.5765330182497410e-04 -4.2619888326992641e-04 4.2095908206827713e-04
1 2.6279490404563961e-03 -1.4904762666293559e-03 -2.8568216701562754e-03
69 -2.9490327895741148e-04 -1.3738573610848224e-03 1.4445256566694798e-04
67 2.4436331751986054e-03 -1.8077593606714364e-03 -3.4872289053558634e-03
27 -1.0754402636250493e-03 9.2446327993653927e-04 2.6476355854034503e-03
50 1.6318284642190886e-03 -1.3613160847505325e-03 5.1753243271514488e-04
51 -2.1882282929799081e-03 1.2109605399037791e-03 -1.3045036097388430e-03
49 1.0393240307456271e-03 9.3866507571012793e-04 7.9908630894640889e-04
52 -9.8748618378129995e-04 -2.1944526714206274e-03 -1.9894282836025933e-03
53 1.9802924883265249e-03 -3.0943931632727623e-04 -1.0831380286760854e-03
48 2.8343169175289048e-03 3.9585768860516172e-04 7.9364416876044868e-04
54 4.0986854412652040e-04 -1.2311454829185080e-03 -2.5359538513338060e-04
47 -7.8851636610562017e-04 -3.8470269090149205e-03 -1.1156730389819776e-04
73 1.6517792686984516e-04 1.4678619435767089e-03 -1.0065171651570837e-03
28 2.0897494614621798e-03 -2.1975128313670063e-04 -3.7669586895595019e-04
46 -1.7151628590247637e-04 -8.6281919951693891e-04 -9.6952303129265588e-05
29 -1.5440508842687881e-03 -6.0400489796376714e-04 3.4192211075594091e-04
106 2.1977458655122240e-03 -2.9564281493200508e-03 -3.5130201336613058e-04
68 8.7927347350791080e-04 2.6359737347186006e-04 -1.4261429070788496e-03
70 -2.1719760159176536e-04 1.8154624396319475e-03 -1.3407013754188953e-03
71 3.1603923340001974e-04 -1.3537907910240569e-03 3.1601111883397849e-03
72 1.4205565825966862e-04 -1.1656659891348237e-03 3.6275162752356157e-04
26 -1.1564601735815959e-03 -5.7107269091547690e-05 7.6764290887537559e-04
55 -8.8082184577842088e-04 -1.8084704549218241e-03 -1.5640287292822703e-03
66 4.6866069010187650e-04 1.2581551492170621e-03 1.7894819739113351e-03
64 -5.4534506680466925e-04 2.4672576534251795e-03 -2.2332766813838532e-03
63 1.3392817628664878e-03 4.9247475575429250e-04 -1.0037726507576413e-03
65 -2.1210628922760685e-03 -8.1974861867749869e-04 1.8813603329435476e-03
61 -3.8556472955295355e-04 -3.9395794529363190e-04 1.3049068343226181e-03
62 -3.8583981756843349e-05 7.8097297149857896e-04 -1.1811407087654684e-03
60 2.8189698554479970e-04 3.2217825998235439e-04 1.6192276768477224e-03
58 -1.0635242627078188e-04 -1.0733637203448952e-03 -1.5069005731655431e-03
57 -4.2306288527102531e-04 -1.3864073853766727e-03 8.7161373267371611e-04
56 -4.5683063512181278e-03 7.4582301170295258e-06 9.9690712615165119e-04
39 -1.2667836305224943e-03 3.6469231017057944e-04 1.4217617275680192e-03
38 -2.3137683134318828e-03 1.7876277701037635e-03 -2.8872011657085700e-03
8 1.1089265585967566e-03 -1.0548755114254413e-03 6.3727211376167839e-05
36 3.1243291309165065e-04 -7.9647229104726149e-04 1.1385645948912212e-03
34 -1.7302041254886624e-05 -7.3795800763845328e-04 7.0136883030480230e-04
35 1.8421746539383883e-03 -4.1383370360056947e-04 -1.8797063645426175e-03
32 -2.8307898003089593e-04 4.4946337381408878e-04 7.5891184100725160e-04
44 8.6879690102854390e-04 6.1215983559417635e-04 -2.0504930173396046e-03
45 -3.6926744842629951e-04 -2.1237846812524447e-03 -2.8176424178791011e-04
43 -2.2872075489729061e-03 -1.0182991281723905e-03 9.7429190263692350e-04
33 -1.6270111463666294e-03 -7.2474527409484063e-04 -2.8091709973968163e-03
18 1.8242093749744010e-03 7.4398853815469497e-04 3.3789115611102599e-03
19 7.0931579006097592e-04 -6.9569013427368942e-05 6.3287688413659693e-04
16 -3.8529678790244390e-04 1.2131335205212684e-03 -4.3788055805995109e-04
17 -1.0106812127891511e-03 -3.0724120692682440e-03 5.9162423607238973e-04
30 -1.6675234029346190e-03 1.9429463486116247e-03 2.7341421130389862e-04
31 7.5396795445142634e-04 -1.5421404110165164e-03 -5.1484374183446611e-04
13 -1.6924061220302648e-03 4.4168292577944338e-04 -1.4786595943369872e-03
10 7.0342082163348343e-04 1.1485140836052794e-03 1.7049732314206919e-03
12 -9.0424407596722146e-04 -4.9303153954180186e-04 2.0921844299012517e-03
11 -2.7428968858596130e-03 7.1542504843028789e-04 -1.6372483808804903e-03
9 5.5393035480539980e-04 -2.7204435099929722e-03 -1.3431105702427966e-03
25 -1.0081854586448964e-03 -3.1462420902083994e-03 -1.9035839413703874e-03
59 1.1004976601082191e-03 -1.1405167311839461e-03 2.1267014298130770e-03
20 -2.0648697825593676e-04 -1.1885932598967926e-03 1.7961664128092374e-03
21 1.2593637560755723e-03 -3.0434889007780780e-03 -3.4286654070349253e-03
24 -2.1084281984635827e-04 2.7485054406567754e-03 -1.1966679125376461e-03
23 3.0585229148413046e-05 -9.9995740612302531e-05 -2.9767723268756614e-04
22 2.2319525122899975e-03 3.3607218506716887e-04 1.2389794635795125e-03
105 -2.4226954674508685e-05 -1.6512660612844159e-03 1.4115388995908189e-03
14 9.0799071193691026e-04 -7.2431185759654678e-04 2.6517753652011804e-03
15 -1.5787541983093563e-03 -3.3167273151842960e-03 -2.5121139196401289e-04
79 1.3021070635156401e-03 -1.3879846424522523e-03 8.3235217816304764e-04
78 -1.3768985373365661e-05 4.5021827252764721e-03 -1.5076987974870818e-03
77 -3.1627889595960075e-04 -8.6574095233350203e-04 1.1854050929980590e-03
80 -5.0245424999475856e-04 1.1844309136999703e-03 3.6868778885537818e-04
107 1.6037740492358056e-03 2.5851217107002119e-03 4.8387445428464188e-04
81 1.3561620953882871e-03 3.5938450535954178e-04 1.4708750474705146e-04
82 -1.0436547224957386e-03 7.6343938794619403e-04 1.8896766659943004e-03
83 4.3407215084114543e-04 -5.4519706030570724e-04 6.9725696543123175e-05
76 2.0538810446653517e-04 2.6779929685844333e-03 3.5514866139444860e-04
74 -1.7339085741252085e-03 -6.1430338129097055e-04 -2.0490861200169247e-03
75 9.9183717066179370e-04 2.0650031841121328e-04 3.7977314600922091e-03
84 -2.5808728908564933e-03 -8.1200652574113606e-04 -7.8041642945282826e-04
85 9.9178609240422913e-05 -8.3152417899615149e-04 1.0876648052564632e-03
86 1.9543390690159729e-03 -4.9571576653082078e-04 1.9833913856954336e-03
87 -2.2006610151176927e-03 -3.1174335324566965e-04 -5.5211531784006768e-04
88 -7.9642172916866160e-04 -1.3403975564029098e-03 4.2527127163401261e-04
89 8.0392182366722739e-04 9.5081634029208330e-04 -1.8720689326760032e-03
90 -7.7726737750851132e-04 1.4995447165645819e-04 -3.1343515464733279e-04
108 1.9859704585504560e-04 -1.5814907490910443e-03 -8.7036108063425518e-04
103 1.4012173953667224e-03 3.9349934809677261e-04 -1.5581073229798451e-03
109 9.3209104341990322e-04 -2.6588614651286392e-04 -1.0217677586648547e-03
110 9.2537408199162017e-04 -9.5121434079152405e-04 7.4100476855652167e-04
111 1.0738854622122220e-03 1.2633737284983881e-04 -1.8638767303528270e-03
112 -8.8242772667029108e-04 -3.7484434023254552e-04 -1.2634875275601483e-03
122 -1.0600282112062213e-04 -2.1497144425618809e-03 -9.6332427646012323e-04
113 3.4877796440128803e-04 -6.2142275806433814e-04 1.2070079199317310e-03
114 2.0807640969188212e-03 -2.1031447497050597e-03 -6.4889736661513414e-05
115 7.7439843051727573e-04 -5.0316741883455677e-04 8.4755775784976090e-04
124 -7.7499764314853934e-04 9.0547587668091958e-04 1.4308990831641733e-03
102 -4.0498381107786172e-03 1.6908100219476744e-04 -2.3603942223355606e-03
123 6.7031444733350003e-05 -1.2967902237600068e-03 -8.0909432759845032e-04
101 -2.8599561292363108e-03 -1.8336612343423307e-04 1.0449587967997483e-03
100 2.8369528319293858e-03 1.8987574630292840e-03 -1.0864385965244491e-03
93 4.1643713446959499e-04 3.8905020420972405e-04 4.7596584885220483e-03