LAMMPS data file via write_data, version 15 May 2015, timestep = 100000

200 atoms
23 atom types
199 bonds
1 bond types

-2.5000000000000000e+02 2.5000000000000000e+02 xlo xhi
-2.5000000000000000e+02 2.5000000000000000e+02 ylo yhi
-2.5000000000000000e+02 2.5000000000000000e+02 zlo zhi

Masses

1 71.08
2 103.1
3 115.1
4 129.1
5 147.2
6 57.05
7 137.1
8 113.2
9 128.2
10 113.2
11 131.2
12 114.1
13 97.12
14 128.1
15 156.2
16 87.08
17 101.1
18 99.07
19 186.2
20 163.2
21 165.03
22 179.05
23 241.15

Bond Coeffs # harmonic

1 189 3.81

Atoms # full

17 1 17 0.0000000000000000e+00 1.6188303466679770e+00 -1.2657159267388408e+01 5.4099187621525289e+00 0 0 0
18 1 18 0.0000000000000000e+00 5.3424775856844064e+00 -1.2559699137202784e+01 6.3547182937236926e+00 0 0 0
9 1 9 1.0000000000000000e+00 8.2135132744792827e+00 4.6670909944940320e+00 1.1807133786913653e+00 0 0 0
8 1 8 0.0000000000000000e+00 9.0303777107662881e+00 8.3035853754955156e+00 5.2318967809284800e-01 0 0 0
14 1 14 0.0000000000000000e+00 -2.6177370325158620e+00 -4.1430845807440448e+00 5.3872176791605568e+00 0 0 0
13 1 13 0.0000000000000000e+00 -2.3149969060304159e+00 -4.7519607532424004e+00 1.5881071085456142e+00 0 0 0
12 1 12 0.0000000000000000e+00 4.7925071929299179e-01 -2.8197166265027818e+00 -7.4520589392534475e-02 0 0 0
15 1 15 1.0000000000000000e+00 -5.4650248507238075e-01 -6.2323089929987248e+00 7.7077344228304696e+00 0 0 0
16 1 16 0.0000000000000000e+00 -7.0706130250150068e-01 -9.9727959682427354e+00 6.8777294990723590e+00 0 0 0
19 1 19 0.0000000000000000e+00 5.9088155354555738e+00 -8.9574233378377812e+00 5.0493627237430587e+00 0 0 0
20 1 20 0.0000000000000000e+00 7.3551962702174478e+00 -5.5436256166128430e+00 4.2769350931326926e+00 0 0 0
25 1 2 0.0000000000000000e+00 1.9285875344027943e+00 8.5352447833753899e+00 7.1166888196733566e+00 0 0 0
11 1 11 0.0000000000000000e+00 3.5241288681103811e+00 -6.1966596732293056e-01 -5.5915910885224207e-01 0 0 0
24 1 1 0.0000000000000000e+00 5.3011522968509155e+00 7.0212527516666796e+00 5.9213018321913182e+00 0 0 0
10 1 10 0.0000000000000000e+00 5.8387689610622147e+00 2.3511372394568468e+00 -7.2828694716818632e-01 0 0 0
22 1 22 -2.0000000000000000e+00 7.4192635398669040e+00 1.4447714323947309e+00 6.7039886203912147e+00 0 0 0
21 1 21 -2.0000000000000000e+00 7.5188570221873192e+00 -1.8532422780730542e+00 4.7920451308271481e+00 0 0 0
23 1 23 -2.0000000000000000e+00 7.2718535449309343e+00 4.8327670960525779e+00 8.3821773742284904e+00 0 0 0
1 1 1 0.0000000000000000e+00 1.7962755546414996e+01 4.8078591153025627e+00 5.5040819208051914e+00 0 0 0
2 1 2 0.0000000000000000e+00 1.8494513692303201e+01 5.6849215797722366e+00 9.1465713576254188e+00 0 0 0
3 1 3 -1.0000000000000000e+00 2.0179945819538148e+01 9.0422305298346259e+00 9.5314942836711225e+00 0 0 0
27 1 4 -1.0000000000000000e+00 -2.8723049799500870e+00 1.1627251373110539e+01 9.8491875927596197e+00 0 0 0
26 1 3 -1.0000000000000000e+00 8.5215580866938012e-01 1.1829584469624081e+01 8.6672183133578073e+00 0 0 0
7 1 7 5.0000000000000000e-01 1.0743154004643145e+01 1.0779034885413012e+01 2.9751645533117710e+00 0 0 0
6 1 6 0.0000000000000000e+00 1.3802895944804789e+01 1.2978791848224034e+01 3.4457399982635195e+00 0 0 0
5 1 5 0.0000000000000000e+00 1.7487010051637242e+01 1.2042638416608611e+01 2.9767547230063940e+00 0 0 0
4 1 4 -1.0000000000000000e+00 1.8746752693942426e+01 1.0281117830737003e+01 6.1270008206691955e+00 0 0 0
45 1 22 -2.0000000000000000e+00 -6.2653049714459428e+00 -1.2359274170628197e+01 1.2662990686690193e+01 0 0 0
44 1 21 -2.0000000000000000e+00 -2.4442714969260919e+00 -1.2411455393077375e+01 1.2728429155213405e+01 0 0 0
46 1 23 -2.0000000000000000e+00 -9.9310293453534655e+00 -1.2324164406346057e+01 1.3815531043406224e+01 0 0 0
63 1 17 0.0000000000000000e+00 6.3942690827742581e+00 -1.2995267742041335e+01 2.3114364604379546e+01 0 0 0
64 1 18 0.0000000000000000e+00 5.0523141181816982e+00 -1.0526339771657831e+01 2.5706154490958511e+01 0 0 0
74 1 5 0.0000000000000000e+00 9.2393922303326690e+00 -1.6319704158799198e+01 2.9515805129857085e+01 0 0 0
62 1 16 0.0000000000000000e+00 6.5910449224425633e+00 -1.0494666160245657e+01 2.0252078664585667e+01 0 0 0
73 1 4 -1.0000000000000000e+00 1.2649286387583516e+01 -1.7859295066516978e+01 2.8846966255640382e+01 0 0 0
72 1 3 -1.0000000000000000e+00 1.4030682551203711e+01 -1.6853531458876233e+01 2.5416985515823910e+01 0 0 0
70 1 1 0.0000000000000000e+00 1.5741932214227006e+01 -1.0863302500613315e+01 2.2313395756675163e+01 0 0 0
71 1 2 0.0000000000000000e+00 1.3546397392560777e+01 -1.3844915759955796e+01 2.3053692524911696e+01 0 0 0
37 1 14 0.0000000000000000e+00 -1.1465399779215943e+01 7.8559109952379913e-01 1.2851472603868274e+01 0 0 0
36 1 13 0.0000000000000000e+00 -1.0723691560952005e+01 4.1765223751976635e+00 1.1274586150372556e+01 0 0 0
48 1 2 0.0000000000000000e+00 -1.0397890292398671e+01 -7.7814184062658285e+00 1.8910087187804493e+01 0 0 0
47 1 1 0.0000000000000000e+00 -9.5475581245044623e+00 -8.9366361719587530e+00 1.5430558433591102e+01 0 0 0
38 1 15 1.0000000000000000e+00 -9.1729809149838673e+00 -4.9125712131601063e-01 1.5473721936683319e+01 0 0 0
43 1 20 0.0000000000000000e+00 -1.0274617839581026e+00 -9.9254712127431617e+00 1.5316404785371049e+01 0 0 0
39 1 16 0.0000000000000000e+00 -8.9715500978075511e+00 -3.8367979379651729e-01 1.9242398291890538e+01 0 0 0
41 1 18 0.0000000000000000e+00 -3.7219900853971808e+00 -4.9262567379151960e+00 2.0140029991415417e+01 0 0 0
61 1 15 1.0000000000000000e+00 4.7991305679313996e+00 -9.1329124273275966e+00 1.7175218362903649e+01 0 0 0
60 1 14 0.0000000000000000e+00 6.0037818924088810e+00 -5.5086879467960159e+00 1.7563850735653091e+01 0 0 0
59 1 13 0.0000000000000000e+00 4.8651113243710142e+00 -3.4172645947114120e+00 2.0541215166097004e+01 0 0 0
34 1 11 0.0000000000000000e+00 -4.0007808742949749e+00 1.6264453541560044e+00 1.1136655831877476e+01 0 0 0
35 1 12 0.0000000000000000e+00 -6.9724687806534291e+00 3.9042050198934817e+00 1.1749694614961356e+01 0 0 0
33 1 10 0.0000000000000000e+00 -7.0940368014689170e-01 8.4323770606104631e-01 1.2899035472849107e+01 0 0 0
40 1 17 0.0000000000000000e+00 -5.3596462069301651e+00 -1.4699185087850140e+00 1.9829889906759092e+01 0 0 0
30 1 7 5.0000000000000000e-01 1.2655206701008979e+00 9.6914233201110846e+00 1.4717706965756122e+01 0 0 0
32 1 9 1.0000000000000000e+00 2.5142308431679226e+00 2.9240583544443268e+00 1.2759391837459248e+01 0 0 0
31 1 8 0.0000000000000000e+00 1.4237844136740705e+00 5.8859360376876566e+00 1.4841448121369922e+01 0 0 0
49 1 3 -1.0000000000000000e+00 -9.7576717693407602e+00 -9.8475368191099335e+00 2.1991354496517886e+01 0 0 0
50 1 4 -1.0000000000000000e+00 -8.7682905108068496e+00 -9.5552581670811776e+00 2.5644173181894530e+01 0 0 0
51 1 5 0.0000000000000000e+00 -9.4248423847788274e+00 -5.9569688634977069e+00 2.7061486754728492e+01 0 0 0
56 1 10 0.0000000000000000e+00 -1.4392165300112367e+00 -2.8950735067512881e+00 2.5637691501946961e+01 0 0 0
52 1 6 0.0000000000000000e+00 -9.7629141011144043e+00 -3.3068431120511548e+00 2.9752935991149627e+01 0 0 0
42 1 19 0.0000000000000000e+00 -3.0796844967596826e+00 -7.8749165457870731e+00 1.7850095332915657e+01 0 0 0
57 1 11 0.0000000000000000e+00 1.8873651291587805e+00 -4.6732249819152685e+00 2.6083948920291391e+01 0 0 0
65 1 19 0.0000000000000000e+00 8.1721325547859465e+00 -8.9647928264921575e+00 2.7376448648180087e+01 0 0 0
58 1 12 0.0000000000000000e+00 2.9958199216509911e+00 -5.9214188207534448e+00 2.2710759136880597e+01 0 0 0
55 1 9 1.0000000000000000e+00 -2.6709603143101788e+00 -1.7467328060594127e+00 2.9083798276703817e+01 0 0 0
66 1 20 0.0000000000000000e+00 1.0054535200981150e+01 -5.8106563472586572e+00 2.6215284522909940e+01 0 0 0
68 1 22 -2.0000000000000000e+00 1.3892170734941544e+01 -4.1917929760944617e+00 2.1033790866592824e+01 0 0 0
69 1 23 -2.0000000000000000e+00 1.6056339023643034e+01 -7.3497690229811781e+00 2.0916117669894902e+01 0 0 0
67 1 21 -2.0000000000000000e+00 1.0420916285609053e+01 -4.5226321285132371e+00 2.2621690410863039e+01 0 0 0
28 1 5 0.0000000000000000e+00 -4.3322704054095311e+00 1.3144891725776461e+01 1.3042375970229216e+01 0 0 0
29 1 6 0.0000000000000000e+00 -2.1422666106583677e+00 1.1244295767245603e+01 1.5452874966635591e+01 0 0 0
82 1 13 0.0000000000000000e+00 -4.4715924249638874e+00 -1.6436313825444330e+01 3.2008385322450408e+01 0 0 0
81 1 12 0.0000000000000000e+00 -1.3989664130554047e+00 -1.7803299561493816e+01 3.3925363996622707e+01 0 0 0
83 1 14 0.0000000000000000e+00 -4.9704046423797195e+00 -1.2636015875044365e+01 3.1591206493502682e+01 0 0 0
84 1 15 1.0000000000000000e+00 -1.5100176383260191e+00 -1.1056812106132639e+01 3.1318693468786307e+01 0 0 0
79 1 10 0.0000000000000000e+00 4.4147349393452942e+00 -1.8372728813820316e+01 3.6632700453556936e+01 0 0 0
80 1 11 0.0000000000000000e+00 9.1894466244164619e-01 -1.9860982087495273e+01 3.6296800924158674e+01 0 0 0
87 1 18 0.0000000000000000e+00 -2.5388042841127572e+00 -1.0997919207204120e+01 3.9190064456794858e+01 0 0 0
76 1 7 5.0000000000000000e-01 9.5712651605330166e+00 -1.0638710940151128e+01 3.3631185654489343e+01 0 0 0
78 1 9 1.0000000000000000e+00 7.2788108570824193e+00 -1.5965031767392929e+01 3.5802138111370709e+01 0 0 0
77 1 8 0.0000000000000000e+00 7.9518538549963296e+00 -1.2296677471559519e+01 3.6664504358613499e+01 0 0 0
85 1 16 0.0000000000000000e+00 9.4269238670202071e-01 -1.3234464843903822e+01 3.3303853132252470e+01 0 0 0
86 1 17 0.0000000000000000e+00 2.6079297282183234e-01 -1.1869721277312408e+01 3.6808865256506522e+01 0 0 0
75 1 6 0.0000000000000000e+00 1.0682125876665509e+01 -1.3083555140266554e+01 3.0876577518231898e+01 0 0 0
115 1 23 -2.0000000000000000e+00 -1.1071209491842808e+01 3.3422833965349810e+00 4.4481434412258068e+01 0 0 0
116 1 1 0.0000000000000000e+00 -1.2018950962791877e+01 5.4640664393382679e+00 4.7484843852108042e+01 0 0 0
53 1 7 5.0000000000000000e-01 -8.8784612731973311e+00 -2.8307472671227174e-01 3.2037037314830684e+01 0 0 0
54 1 8 0.0000000000000000e+00 -5.1904734156709651e+00 4.1594764079121660e-02 3.1294478669484818e+01 0 0 0
92 1 23 -2.0000000000000000e+00 2.7569877269473295e+00 -3.2798484655617415e+00 3.3558324663659391e+01 0 0 0
93 1 1 0.0000000000000000e+00 6.2121018053558146e+00 -3.3112443009071910e+00 3.5220174276866658e+01 0 0 0
104 1 12 0.0000000000000000e+00 2.1016089576320951e-01 9.5408734796575914e+00 3.3458623685050327e+01 0 0 0
114 1 22 -2.0000000000000000e+00 -8.8963067773996158e+00 5.9550429818162343e-01 4.6110416382793062e+01 0 0 0
90 1 21 -2.0000000000000000e+00 -3.5513478441613131e+00 -3.7798912644967402e+00 3.7666041127326309e+01 0 0 0
89 1 20 0.0000000000000000e+00 -5.7655752617145026e+00 -6.3496374776281073e+00 3.9419250981261257e+01 0 0 0
88 1 19 0.0000000000000000e+00 -3.6374438523013453e+00 -8.4483139934002622e+00 4.1800683747523806e+01 0 0 0
112 1 20 0.0000000000000000e+00 -3.5696605506877006e+00 -3.3701563280203857e+00 4.6165045979557192e+01 0 0 0
113 1 21 -2.0000000000000000e+00 -7.3937179358540561e+00 -2.9382285807730284e+00 4.6487153368888698e+01 0 0 0
94 1 2 0.0000000000000000e+00 6.4760946890573337e+00 -3.6036620866073861e+00 3.9012109361766534e+01 0 0 0
96 1 4 -1.0000000000000000e+00 8.6087449698624710e+00 -3.3041113042793313e-01 4.5511807528826751e+01 0 0 0
97 1 5 0.0000000000000000e+00 9.6079989406358095e+00 3.1848597911522916e+00 4.4263357706401791e+01 0 0 0
95 1 3 -1.0000000000000000e+00 7.2720457991298417e+00 -2.3699633942945297e+00 4.2561928535291770e+01 0 0 0
111 1 19 0.0000000000000000e+00 -9.4238022089967899e-02 -3.2276594314525084e+00 4.4826076681202665e+01 0 0 0
129 1 14 0.0000000000000000e+00 3.8625768096563036e+00 -6.6345515410591815e+00 4.8546235710369274e+01 0 0 0
130 1 15 1.0000000000000000e+00 7.4688600432356225e+00 -7.0592475548299944e+00 4.7476716031040382e+01 0 0 0
91 1 22 -2.0000000000000000e+00 -3.2964889347502435e-01 -4.2110739368141310e+00 3.5613096785167386e+01 0 0 0
123 1 8 0.0000000000000000e+00 -6.4098447023181677e+00 8.4620821691111132e+00 4.8111361968127824e+01 0 0 0
106 1 14 0.0000000000000000e+00 -3.2417041773079802e+00 8.5816029947846459e+00 3.7655289314214940e+01 0 0 0
107 1 15 1.0000000000000000e+00 -2.9810177153491395e+00 6.2710990599317142e+00 4.0657523729004652e+01 0 0 0
110 1 18 0.0000000000000000e+00 2.0857850800464632e+00 -1.1649549837636641e-01 4.4992058838108846e+01 0 0 0
102 1 10 0.0000000000000000e+00 6.0140333375380237e+00 6.2592372715789679e+00 3.0251742206058964e+01 0 0 0
109 1 17 0.0000000000000000e+00 1.0504539615780004e+00 3.5132055745594073e+00 4.4484018621690325e+01 0 0 0
103 1 11 0.0000000000000000e+00 3.2074162352906512e+00 8.5900243843731232e+00 3.1410065567625225e+01 0 0 0
100 1 8 0.0000000000000000e+00 9.8752396836775915e+00 3.0950048584760168e+00 3.4605077707886210e+01 0 0 0
101 1 9 1.0000000000000000e+00 9.1130346782223910e+00 4.0971848927467533e+00 3.1022469790191167e+01 0 0 0
108 1 16 0.0000000000000000e+00 1.1479608700244626e-01 6.8568023344287212e+00 4.2799890867225713e+01 0 0 0
105 1 13 0.0000000000000000e+00 -1.9871108803144466e+00 6.6080308682208511e+00 3.4555773160108401e+01 0 0 0
125 1 10 0.0000000000000000e+00 -2.3715991500341147e+00 3.5682120322684341e+00 4.9166962885931014e+01 0 0 0
98 1 6 0.0000000000000000e+00 1.0385908799270965e+01 4.0098879618218461e+00 4.0600013577715856e+01 0 0 0
99 1 7 5.0000000000000000e-01 1.2198901687592809e+01 4.5861898405778447e+00 3.7310754067332482e+01 0 0 0
122 1 7 5.0000000000000000e-01 -9.5367630285307428e+00 1.0604495844333769e+01 4.8252810278245420e+01 0 0 0
141 1 3 -1.0000000000000000e+00 1.6195032958665081e+00 1.5691471833024991e+01 4.9593510692298082e+01 0 0 0
192 1 8 0.0000000000000000e+00 7.5944404699480401e+00 -1.1517661023183734e+01 6.7548136286392378e+01 0 0 0
190 1 6 0.0000000000000000e+00 5.7036149513446333e+00 -1.6587068217521647e+01 6.8700229704294486e+01 0 0 0
191 1 7 5.0000000000000000e-01 6.9180551537047563e+00 -1.4682048350633153e+01 6.5673713857943142e+01 0 0 0
153 1 15 1.0000000000000000e+00 -1.0386772091178869e+01 -6.4719318337683660e+00 5.7601274591716901e+01 0 0 0
118 1 3 -1.0000000000000000e+00 -1.5672751569081186e+01 9.1299444090814177e+00 5.1642427587918576e+01 0 0 0
117 1 2 0.0000000000000000e+00 -1.3912816545776678e+01 5.9572652815588754e+00 5.0640561419087248e+01 0 0 0
152 1 14 0.0000000000000000e+00 -1.0278846314900193e+01 -2.6452635305339527e+00 5.7363012626614932e+01 0 0 0
161 1 23 -2.0000000000000000e+00 -1.0493485483115762e+01 1.3951947158785742e+00 6.4759716785783269e+01 0 0 0
163 1 2 0.0000000000000000e+00 -1.2816157451501226e+01 6.6055285544110802e+00 6.8527564743152709e+01 0 0 0
162 1 1 0.0000000000000000e+00 -1.1878277021194378e+01 4.9143075494211246e+00 6.5331636640120450e+01 0 0 0
128 1 13 0.0000000000000000e+00 7.5173062506456745e-01 -6.2646507682820811e+00 5.0547738002231085e+01 0 0 0
154 1 16 0.0000000000000000e+00 -9.3188842283283009e+00 -8.8481467976738202e+00 5.4818021334596551e+01 0 0 0
134 1 19 0.0000000000000000e+00 9.9562713800003166e+00 -9.5846963302250288e-02 5.3554115057476395e+01 0 0 0
127 1 12 0.0000000000000000e+00 6.6795206991187683e-01 -2.5318420847693233e+00 5.1317516402356773e+01 0 0 0
124 1 9 1.0000000000000000e+00 -5.6605678441881366e+00 5.2451186439406285e+00 5.0015081703876376e+01 0 0 0
150 1 12 0.0000000000000000e+00 -6.2755754853399424e+00 3.3486256370503042e-01 5.3612912453987633e+01 0 0 0
144 1 6 0.0000000000000000e+00 6.6899033165702804e-01 9.9905608913016408e+00 5.4960642978215560e+01 0 0 0
149 1 11 0.0000000000000000e+00 -6.3674915589411114e+00 1.8789024814373931e+00 5.7073622115371961e+01 0 0 0
143 1 5 0.0000000000000000e+00 1.0722847584218016e+00 9.3631217276729330e+00 5.1247964635092330e+01 0 0 0
135 1 20 0.0000000000000000e+00 7.0976546310348567e+00 2.4122067763572375e+00 5.3322189078682754e+01 0 0 0
126 1 11 0.0000000000000000e+00 -7.1601294155155415e-01 9.5735977367971259e-01 5.1497553838762030e+01 0 0 0
137 1 22 -2.0000000000000000e+00 8.3312853378204750e+00 8.9118825700003867e+00 5.5306327131311946e+01 0 0 0
136 1 21 -2.0000000000000000e+00 6.5506649537762200e+00 5.4824955363858976e+00 5.5246954205401948e+01 0 0 0
155 1 17 0.0000000000000000e+00 -6.4588008631614571e+00 -8.4249311448971014e+00 5.2332606887379200e+01 0 0 0
157 1 19 0.0000000000000000e+00 -3.0493880753462861e+00 -5.5626457135788883e+00 5.6479264395395774e+01 0 0 0
158 1 20 0.0000000000000000e+00 -4.0687046579403443e+00 -5.5093891844021243e+00 6.0240651981832968e+01 0 0 0
159 1 21 -2.0000000000000000e+00 -5.1702099155243673e+00 -2.8805804790311811e+00 6.2682756031462702e+01 0 0 0
160 1 22 -2.0000000000000000e+00 -7.4135293563255971e+00 -9.1120196976305579e-01 6.5125429773604537e+01 0 0 0
156 1 18 0.0000000000000000e+00 -4.1272148721062933e+00 -5.4545155139750534e+00 5.2815563545322618e+01 0 0 0
197 1 13 0.0000000000000000e+00 3.5929377055226155e+00 -4.6411994384101263e-02 6.9206742174943543e+01 0 0 0
174 1 13 0.0000000000000000e+00 1.9115838564631815e+00 -6.1738492596065839e+00 6.2893580075524937e+01 0 0 0
175 1 14 0.0000000000000000e+00 2.2482179068014148e+00 -6.1554288435461899e+00 5.9168294657103047e+01 0 0 0
176 1 15 1.0000000000000000e+00 4.7611688862008066e+00 -5.2401311815336271e+00 5.6380556490885112e+01 0 0 0
177 1 16 0.0000000000000000e+00 7.9452969064348054e+00 -4.9311318507002682e+00 5.8502376737175553e+01 0 0 0
194 1 10 0.0000000000000000e+00 1.9074683647039592e+00 -9.5417209879566371e+00 6.8743485857433768e+01 0 0 0
193 1 9 1.0000000000000000e+00 5.3246317503440821e+00 -8.4076812909469254e+00 6.7275120675080245e+01 0 0 0
195 1 11 0.0000000000000000e+00 4.7983577612558292e-01 -6.0866525799401643e+00 6.9873750708739749e+01 0 0 0
173 1 12 0.0000000000000000e+00 3.6099364482764997e+00 -2.7836126258211209e+00 6.3616286841227179e+01 0 0 0
151 1 13 0.0000000000000000e+00 -9.3660935050425849e+00 -1.8736555896886955e+00 5.3705341295951655e+01 0 0 0
167 1 6 0.0000000000000000e+00 -5.3552769520981940e+00 6.5762843264837443e+00 6.5209619244958958e+01 0 0 0
148 1 10 0.0000000000000000e+00 -3.1560910740828092e+00 2.3324824205428456e+00 5.8921612448736312e+01 0 0 0
147 1 9 1.0000000000000000e+00 -1.5565780892201246e+00 5.6676850800111538e+00 5.8061786765279464e+01 0 0 0
169 1 8 0.0000000000000000e+00 1.2783658842850514e+00 9.2604599672133077e+00 6.4478993754691032e+01 0 0 0
168 1 7 5.0000000000000000e-01 -1.5764136648827218e+00 6.8932613724899170e+00 6.5247752281142652e+01 0 0 0
146 1 8 0.0000000000000000e+00 -2.3593251064798721e+00 9.2558891032293786e+00 5.9270107755055619e+01 0 0 0
165 1 4 -1.0000000000000000e+00 -9.2717291271505644e+00 9.9938182897591332e+00 6.4725890574956054e+01 0 0 0
166 1 5 0.0000000000000000e+00 -7.3026121768949110e+00 7.8860858414435597e+00 6.2220647642471761e+01 0 0 0
172 1 11 0.0000000000000000e+00 5.1588548223946873e+00 3.2816070356662408e-01 6.2070836440869982e+01 0 0 0
171 1 10 0.0000000000000000e+00 5.7823366853643847e+00 4.0890716766366495e+00 6.2189147496260432e+01 0 0 0
170 1 9 1.0000000000000000e+00 3.8689456915419385e+00 7.3269509676736106e+00 6.2543478644733739e+01 0 0 0
198 1 14 0.0000000000000000e+00 3.4374755002712334e+00 3.3762622840058896e+00 6.7624802109838811e+01 0 0 0
131 1 16 0.0000000000000000e+00 1.0068357405940446e+01 -7.8388480185350318e+00 5.0122793187816001e+01 0 0 0
132 1 17 0.0000000000000000e+00 1.2713649921250692e+01 -5.2548274919295181e+00 5.0897101091985633e+01 0 0 0
133 1 18 0.0000000000000000e+00 1.2285362470485779e+01 -2.9988467097840328e+00 5.4044030507453897e+01 0 0 0
178 1 17 0.0000000000000000e+00 1.0901427889748334e+01 -5.4426439440676972e+00 6.0841925761095979e+01 0 0 0
182 1 21 -2.0000000000000000e+00 1.0111927120237453e+01 -2.3573598284098694e+00 6.8897275767984809e+01 0 0 0
181 1 20 0.0000000000000000e+00 1.3403507101440425e+01 -6.4626044959325668e-01 6.8052536978422609e+01 0 0 0
179 1 18 0.0000000000000000e+00 1.2457304323948108e+01 -4.3654276656365028e+00 6.4108940805587849e+01 0 0 0
180 1 19 0.0000000000000000e+00 1.5468265236719674e+01 -2.3824420213638859e+00 6.5356958635842147e+01 0 0 0
121 1 6 0.0000000000000000e+00 -1.0001749763723325e+01 1.1457947874842660e+01 5.1848463264306417e+01 0 0 0
119 1 4 -1.0000000000000000e+00 -1.4814277459343231e+01 1.2770712104824383e+01 5.2519205489772673e+01 0 0 0
120 1 5 0.0000000000000000e+00 -1.1705494888378865e+01 1.3497258384467727e+01 5.4632835221116238e+01 0 0 0
164 1 3 -1.0000000000000000e+00 -1.1301096753885560e+01 1.0063962829281309e+01 6.7954426240656005e+01 0 0 0
142 1 4 -1.0000000000000000e+00 -5.2996887560502159e-01 1.2754403254841918e+01 5.0836806364419033e+01 0 0 0
139 1 1 0.0000000000000000e+00 4.5135234946844776e+00 1.4401701441181785e+01 5.3618283029991346e+01 0 0 0
138 1 23 -2.0000000000000000e+00 6.9987979131956308e+00 1.2415817096717603e+01 5.5849246690911798e+01 0 0 0
145 1 7 5.0000000000000000e-01 -2.6298173142538417e-01 1.2242912225571843e+01 5.7880671947678081e+01 0 0 0
140 1 2 0.0000000000000000e+00 2.0360587851239131e+00 1.7213974151816615e+01 5.3034847936861581e+01 0 0 0
189 1 5 0.0000000000000000e+00 3.4611322387541179e+00 -1.5333845084861963e+01 7.1470937923752331e+01 0 0 0
188 1 4 -1.0000000000000000e+00 3.0388049220759683e+00 -1.5924161751333600e+01 7.5258974375141236e+01 0 0 0
187 1 3 -1.0000000000000000e+00 3.6546066865150806e+00 -1.2889239879087341e+01 7.7474696709389264e+01 0 0 0
186 1 2 0.0000000000000000e+00 7.4076411870081529e+00 -1.2025118387546570e+01 7.7174355999694626e+01 0 0 0
196 1 12 0.0000000000000000e+00 2.7319094582379364e+00 -3.2734347361619598e+00 7.1062742714230069e+01 0 0 0
183 1 22 -2.0000000000000000e+00 8.6367127752590136e+00 -4.2429178886182228e+00 7.1896814157558936e+01 0 0 0
184 1 23 -2.0000000000000000e+00 7.1831914630296296e+00 -5.9130541770898617e+00 7.5068817498048361e+01 0 0 0
199 1 15 1.0000000000000000e+00 3.6372282020801094e+00 5.4105215554408517e+00 7.0878861225516516e+01 0 0 0
185 1 1 0.0000000000000000e+00 7.7003651319648156e+00 -9.5849130896123711e+00 7.4269637406720960e+01 0 0 0
200 1 16 0.0000000000000000e+00 6.7875758079054549e-01 7.0676900082559655e+00 7.2674027002748005e+01 0 0 0

Velocities

17 -3.8783355954984501e-04 1.5372157589035270e-03 -3.8456949113965344e-04
18 -8.9617916517954624e-04 -1.5274924228535359e-03 1.7272838596877342e-03
9 -5.2740782212810553e-04 1.4630311840893400e-05 1.1231639942092461e-03
8 -1.4432876704722469e-03 -3.8749519390579595e-04 8.8386795186760089e-04
14 2.4523301858308281e-03 -1.4753438195515432e-03 2.0238986811654672e-04
13 1.8789156782400443e-03 6.3180809291509725e-04 -1.9516823441626408e-03
12 2.6409649721600222e-04 -2.3590647216989334e-03 -2.2452105052972694e-03
15 8.0265591965568634e-04 -4.2797792029036677e-04 -6.6844159272900290e-04
16 3.1855829037937455e-04 7.3398066990620230e-04 -1.7718277140715219e-03
19 -1.2751347129232784e-03 -1.9101723125053087e-03 -6.8026131404874072e-04
20 1.9719281820656143e-03 -1.9206505218758471e-03 -9.4476348573035909e-04
25 1.6779342720274694e-03 -2.5188649697095501e-03 1.2185930791679884e-03
11 -6.2513960122784760e-04 5.9924351022918709e-04 1.0000250881642441e-04
24 -1.7687965119312331e-05 -2.4221544768201412e-03 1.5393271020385886e-03
10 3.2690661133324766e-04 -9.6854516303650792e-04 9.6216942178914996e-04
22 -1.2920384235125710e-05 -2.3340059394783698e-03 -2.8131493627111918e-04
21 6.1519570451618781e-04 -1.1521455676496675e-03 1.9459353430461011e-03
23 4.0172406641418319e-04 1.7038384837441375e-03 1.4163241461825262e-04
1 1.8032028506854384e-03 2.1277800726441768e-03 -1.4508663899634807e-03
2 1.7125779052073089e-03 -4.9685074390609478e-04 2.2108241324957411e-03
3 -2.1808203339107151e-04 -4.1980086682476817e-04 -4.3640306038996131e-03
27 4.7188860741866892e-04 8.8486809853415493e-04 -3.5774512789947137e-04
26 1.1522429636263915e-03 -6.9354190549676946e-04 -1.6084062821634687e-03
7 -2.8864566491787979e-03 1.5241919924493426e-03 -3.4297592834865834e-04
6 1.8740872101963039e-03 7.4466892185027264e-04 -3.5665415399892412e-03
5 -1.8394907009554422e-03 -5.1409278661717988e-04 -7.0102287644588964e-04
4 -8.8497190892341952e-04 4.1157453657201056e-04 5.0507418082793866e-04
45 -8.8026085190025575e-04 -8.0411058503965748e-04 -3.6653769880240782e-04
44 -2.9643733687190557e-04 -1.5165658077499397e-03 -3.8440937157804191e-05
46 9.7729324922536578e-04 9.1677183637370601e-04 -5.2437166525068142e-05
63 -1.5645855821063027e-03 1.7716733373834258e-03 9.2448927001496310e-04
64 6.8231202707734050e-04 -1.3041564546296932e-03 3.3303655075789251e-03
74 9.4995700309837634e-05 9.8479615120237790e-04 1.0742064649324509e-03
62 -2.6878403068992965e-04 -1.4186860608802283e-03 9.0221743953379356e-04
73 -2.4224582062591556e-04 -1.9151258506275310e-03 2.1480174989508979e-03
72 1.0345389037293539e-03 -1.9451298434937695e-03 -6.3361426711178235e-04
70 -1.8254122857957675e-03 2.6867781481752177e-04 -1.0514482517200822e-03
71 1.9108935167494842e-03 -1.7869871854900962e-03 -2.0336581285828521e-03
37 2.4715575512908848e-04 7.5928611978525666e-04 -1.4502858942180717e-03
36 3.4141481692309857e-04 7.4191629504293248e-04 6.0471729708122871e-04
48 -3.6467747986549943e-04 -3.5790440497120981e-03 -5.3382081039330558e-04
47 -3.8646860390459947e-03 1.3190641085517813e-03 3.2167916433747034e-03
38 1.4553777497717567e-03 1.9241747745974008e-03 8.8267902305788008e-04
43 -1.0491907455126548e-03 -1.5599855370917193e-03 -6.4160861772713556e-05
39 -8.3523543512144016e-05 -4.0734743486394156e-03 2.0341413261888734e-03
41 -1.2173406919284516e-04 -1.2947841121752983e-03 1.6548531373001081e-03
61 -2.5102187335675646e-03 3.4567538466988361e-04 -8.1237620026632486e-04
60 2.7961655831385646e-04 -6.8239854888620696e-04 1.9942379928901276e-03
59 1.4305431576890065e-04 -6.7832758119779166e-04 -2.1870435597417916e-03
34 8.4566860399174957e-04 -2.7593465167467346e-03 -2.2234573208487138e-03
35 -3.2875958699978046e-04 -1.7035547278451211e-03 -1.2228278858519384e-03
33 3.9260471722470786e-04 -4.8239640706276203e-04 1.0191187809794112e-03
40 9.4102316998508203e-04 -1.0419987528599752e-03 -6.1676749387625646e-04
30 -1.2047423871408285e-03 1.9207388235909660e-03 -3.5142717927480184e-05
32 -1.1363174270892936e-03 -2.4214086070273818e-03 8.5563901285590812e-04
31 -2.4631419845821188e-03 1.4989157230432368e-03 -1.0220452889783400e-04
49 3.3175682138415490e-03 -1.2092330194343301e-04 1.7185155205497512e-03
50 3.6742502174487923e-04 -2.1697144662311181e-03 2.3855721184889316e-04
51 1.8918003708708311e-03 -1.1858710765179463e-03 1.2597850623321787e-03
56 5.3966756038741764e-04 1.9879741586507462e-03 2.2497204154684285e-03
52 -8.6069719835180059e-04 -2.7412507653587432e-03 -1.4139215240532321e-03
42 8.7150134676870100e-04 2.5463082915191335e-04 1.0371119118856929e-03
57 -8.4696909712711225e-05 2.4193256585540506e-03 1.6388821725047179e-03
65 -1.2288764305894819e-03 7.6444620673230879e-04 1.6391683706335582e-03
58 3.9275662314497059e-04 -4.9488702859533135e-04 -1.9958047817855646e-03
55 -9.3540032952637339e-05 1.6548444456743652e-03 6.6428338701561584e-04
66 4.0503275799621082e-04 3.3694564664433959e-04 -2.4031188417424350e-04
68 9.3663153177190673e-04 3.9889301650931810e-05 1.0992629213120051e-03
69 -8.3509133063107584e-04 -1.4694861379144324e-03 9.2850483935285428e-04
67 1.8922562580365886e-03 -1.4108241654637883e-03 1.1683565269559528e-03
28 -1.4555515088387526e-03 2.6471803432190469e-04 -5.8783024336367048e-04
29 2.0203221613274312e-03 -1.9689225642631381e-03 1.0988717790027620e-03
82 -2.0484755044892361e-04 1.3602145071194597e-03 7.6571210970974280e-04
81 -5.8311974183221122e-04 -2.8423267052907126e-03 1.7599603190635398e-04
83 -6.6094825687300308e-04 -1.1925202535579954e-03 1.7646518493082960e-04
84 -2.3159870272305562e-03 -1.7049003280165070e-03 -6.3476388371528931e-04
79 7.0671073019214659e-04 -5.5506534483770178e-04 1.9203445587956461e-03
80 -2.0927775974960368e-04 -5.1833821909845392e-04 -1.6021983066948509e-03
87 -2.4242370276882705e-05 -9.5372383715335994e-04 6.9815541416169463e-04
76 2.9294678276248765e-03 6.3804415083514162e-04 8.4755632602276441e-05
78 -1.7713211521698020e-04 8.2590309094341720e-04 1.1518385201828721e-03
77 -6.3867010716668659e-04 -3.8961507834246316e-04 -2.4238399398134802e-03
85 2.4122379137764158e-04 -5.2130763289369106e-04 -1.3067554426461688e-03
86 1.0450679387657355e-03 3.9303134723767569e-04 -1.0739749358089498e-03
75 1.3033980203025462e-03 -2.0509929433300969e-03 -1.5070197697893578e-03
115 8.9424142104468007e-04 5.1340179718802569e-04 -7.7746596388787227e-04
116 -9.1985482255878010e-04 2.1700907283339161e-03 1.6841398718256055e-03
53 -3.9061452450997751e-04 1.0349844889547682e-03 1.1054908545674910e-03
54 -3.3858710766463014e-04 -3.6870080798596868e-04 1.6768093073032031e-03
92 -2.5701571434490157e-04 2.3693659959275791e-03 1.0540063591345974e-03
93 -2.9003129666319892e-03 1.0215551065971649e-03 1.3770341452814638e-03
104 7.4823033275743718e-04 -3.7067257110738849e-04 -1.2517266664444375e-03
114 1.5554473230533535e-03 6.2529465375784623e-04 2.3580734186590764e-04
90 1.8245094241741238e-03 -1.5612766791081925e-04 8.5620501585424876e-04
89 -9.0415990332635954e-04 -1.0950284812778846e-03 1.0666780755164953e-03
88 -4.9184124925485788e-04 -2.0761752634551843e-05 -1.3523426117766507e-03
112 -1.3108902194890232e-03 1.2832983340459725e-03 -3.2787160618842799e-04
113 3.9729003366675581e-04 1.1416773760002017e-03 1.6516189723032012e-03
94 1.1114930812123516e-03 5.6323364860563188e-04 -1.3540291940772424e-03
96 -3.4408175620003964e-03 1.0934920418170462e-04 -2.1664087998274194e-03
97 5.9020096284329536e-04 -2.1901743494956087e-03 -5.6862579721534572e-04
95 9.0531912024250966e-04 -1.4206899832435683e-03 1.6967780182451961e-03
111 1.1626255734331680e-04 -5.4921445841221348e-04 6.5377678862172815e-04
129 1.3390713622112439e-03 -9.4700187012149487e-04 1.5842478915466559e-03
130 1.5782574186240072e-03 -2.6369184915530225e-03 -2.7914528927716197e-04
91 7.1487819661919473e-04 -9.5962895459558088e-04 -2.7237040468214005e-03
123 -1.5674265181540162e-04 -1.1428409565725720e-03 -5.9563641863843813e-04
106 -1.3827054790485492e-03 1.1930330575907250e-03 -2.6926435622577350e-04